                         Program Version 5.0.4 -  RELEASE  -
|  1> # avogadro generated ORCA input file
|  2> # Basic Mode
|  3> # Molecular orbital of H2
|  4> ! MP2 OPT def2-TZVPP
|  5> ! Normalprint
|  6> %output
|  7> Print[P_Basis]2
|  8> Print[P_MOs]1
|  9> end
| 10>
| 11> * xyz 0 1
| 12>    H        1.07079       -0.03266        0.05724
| 13>    H        1.77879       -0.03266        0.05724
| 14> *
| 15>
| 16>
| 17>                          ****END OF INPUT****
 Total Charge           Charge          ....    0
 Multiplicity           Mult            ....    1
 Number of Electrons    NEL             ....    2
MP2 TOTAL ENERGY:       -1.164029007 Eh
FINAL SINGLE POINT ENERGY        -1.164029007174
MP2 TOTAL ENERGY:       -1.164500424 Eh
FINAL SINGLE POINT ENERGY        -1.164500424084
MP2 TOTAL ENERGY:       -1.164652618 Eh
FINAL SINGLE POINT ENERGY        -1.164652617594
MP2 TOTAL ENERGY:       -1.164653950 Eh
FINAL SINGLE POINT ENERGY        -1.164653949557
                    ***********************HURRAY********************

CARTESIAN COORDINATES (ANGSTROEM)
---------------------------------
  H      1.056286   -0.032660    0.057240
  H      1.793294   -0.032660    0.057240

 Multiplicity           Mult            ....    1
 Number of Electrons    NEL             ....    2
 Basis Dimension        Dim             ....   28

ORBITAL ENERGIES
----------------

  NO   OCC          E(Eh)            E(eV)
   0   2.0000      -0.595616       -16.2075
   1   0.0000       0.168177         4.5763
   2   0.0000       0.306315         8.3353
   3   0.0000       0.647592        17.6219
   4   0.0000       0.693039        18.8585
   5   0.0000       0.693039        18.8585

------------------
MOLECULAR ORBITALS
------------------
                      0         1         2         3         4         5
                  -0.59562   0.16818   0.30632   0.64759   0.69304   0.69304
                   2.00000   0.00000   0.00000   0.00000   0.00000   0.00000
                  --------  --------  --------  --------  --------  --------
  0H   1s         0.186101  0.066102 -0.056097 -0.124557  0.000000  0.000000
  0H   2s         0.283549 -0.306049 -0.734480 -2.230359 -0.000000 -0.000000
  0H   3s         0.135734  2.332837  0.860184  2.254795  0.000000  0.000000
  0H   1pz        0.000000 -0.000000  0.000000  0.000000  0.003406  0.058533
  0H   1px        0.012095 -0.035396 -0.016787 -0.086060 -0.000000 -0.000000
  0H   1py       -0.000000 -0.000000 -0.000000 -0.000000  0.058533 -0.003406
  0H   2pz        0.000000 -0.000000 -0.000000  0.000000 -0.033575 -0.576926
  0H   2px        0.017323 -0.099058  0.051466 -0.182216 -0.000000  0.000000
  0H   2py        0.000000 -0.000000  0.000000 -0.000000 -0.576926  0.033575
  0H   1dz2      -0.000412  0.009543 -0.004066  0.034919  0.000000  0.000000
  0H   1dxz       0.000000 -0.000000 -0.000000  0.000000  0.000517  0.008883
  0H   1dyz       0.000000  0.000000  0.000000 -0.000000  0.000000 -0.000000
  0H   1dx2y2     0.000714 -0.016529  0.007042 -0.060482  0.000000 -0.000000
  0H   1dxy       0.000000 -0.000000  0.000000 -0.000000  0.008883 -0.000517
  1H   1s         0.186101 -0.066102 -0.056097  0.124557  0.000000  0.000000
  1H   2s         0.283549  0.306049 -0.734480  2.230359  0.000000  0.000000
  1H   3s         0.135734 -2.332837  0.860184 -2.254795  0.000000 -0.000000
  1H   1pz       -0.000000  0.000000 -0.000000 -0.000000  0.003406  0.058533
  1H   1px       -0.012095 -0.035396  0.016787 -0.086060 -0.000000 -0.000000
  1H   1py        0.000000  0.000000  0.000000  0.000000  0.058533 -0.003406
  1H   2pz       -0.000000  0.000000  0.000000 -0.000000 -0.033575 -0.576926
  1H   2px       -0.017323 -0.099058 -0.051466 -0.182216 -0.000000 -0.000000
  1H   2py       -0.000000  0.000000 -0.000000  0.000000 -0.576926  0.033575
  1H   1dz2      -0.000412 -0.009543 -0.004066 -0.034919  0.000000  0.000000
  1H   1dxz       0.000000 -0.000000 -0.000000  0.000000 -0.000517 -0.008883
  1H   1dyz      -0.000000  0.000000 -0.000000 -0.000000 -0.000000 -0.000000
  1H   1dx2y2     0.000714  0.016529  0.007042  0.060482  0.000000  0.000000
  1H   1dxy       0.000000 -0.000000  0.000000 -0.000000 -0.008883  0.000517
                      6         7         8         9        10        11
                   1.09779   1.12061   1.12061   1.53025   2.34685   2.41562
                   0.00000   0.00000   0.00000   0.00000   0.00000   0.00000
                  --------  --------  --------  --------  --------  --------
  0H   1s         0.007797 -0.000000 -0.000000  0.038487 -0.622963 -0.954501
  0H   2s         0.668373 -0.000000 -0.000000 13.248302  3.514345  0.989508
  0H   3s        -0.356459  0.000000  0.000000 -0.287942 -1.321228 -0.385424
  0H   1pz        0.000000  0.034637  0.056220  0.000000 -0.000000 -0.000000
  0H   1px        0.102740 -0.000000 -0.000000  0.130476  0.568650 -0.106431
  0H   1py        0.000000  0.056220 -0.034637  0.000000  0.000000 -0.000000
  0H   2pz       -0.000000 -0.747162 -1.212716 -0.000000  0.000000 -0.000000
  0H   2px       -1.067386  0.000000  0.000000  6.267913  0.724829  0.241699
  0H   2py        0.000000 -1.212716  0.747162  0.000000 -0.000000  0.000000
  0H   1dz2       0.034190 -0.000000 -0.000000 -0.144582 -0.212503  0.055941
  0H   1dxz      -0.000000 -0.057651 -0.093573  0.000000  0.000000 -0.000000
  0H   1dyz       0.000000 -0.000000 -0.000000 -0.000000 -0.000000  0.000000
  0H   1dx2y2    -0.059219  0.000000  0.000000  0.250424  0.368066 -0.096892
  0H   1dxy       0.000000 -0.093573  0.057651 -0.000000 -0.000000  0.000000
  1H   1s         0.007797 -0.000000 -0.000000 -0.038487  0.622963 -0.954501
  1H   2s         0.668373 -0.000000  0.000000-13.248302 -3.514345  0.989508
  1H   3s        -0.356459  0.000000  0.000000  0.287942  1.321228 -0.385424
  1H   1pz       -0.000000 -0.034637 -0.056220  0.000000  0.000000 -0.000000
  1H   1px       -0.102740  0.000000  0.000000  0.130476  0.568650  0.106431
  1H   1py        0.000000 -0.056220  0.034637  0.000000 -0.000000  0.000000
  1H   2pz        0.000000  0.747162  1.212716  0.000000 -0.000000  0.000000
  1H   2px        1.067386 -0.000000 -0.000000  6.267913  0.724829 -0.241699
  1H   2py       -0.000000  1.212716 -0.747162 -0.000000  0.000000 -0.000000
  1H   1dz2       0.034190 -0.000000 -0.000000  0.144582  0.212503  0.055941
  1H   1dxz      -0.000000 -0.057651 -0.093573  0.000000  0.000000 -0.000000
  1H   1dyz      -0.000000  0.000000 -0.000000 -0.000000  0.000000 -0.000000
  1H   1dx2y2    -0.059219  0.000000  0.000000 -0.250424 -0.368066 -0.096892
  1H   1dxy       0.000000 -0.093573  0.057651 -0.000000 -0.000000  0.000000
                     12        13        14        15        16        17
                   3.17582   3.17582   3.41451   3.41451   3.67643   3.89023
                   0.00000   0.00000   0.00000   0.00000   0.00000   0.00000
                  --------  --------  --------  --------  --------  --------
  0H   1s         0.000000 -0.000000  0.000000  0.000000  0.091720  0.000000
  0H   2s        -0.000000  0.000000 -0.000000 -0.000000  0.265334  0.000000
  0H   3s         0.000000 -0.000000  0.000000  0.000000 -0.154684 -0.000000
  0H   1pz        0.000000  0.000000  0.057226 -0.588523 -0.000000  0.109438
  0H   1px        0.000000 -0.000000  0.000000 -0.000000  0.819708  0.000000
  0H   1py        0.000000 -0.000000  0.588523  0.057226 -0.000000  0.477567
  0H   2pz       -0.000000 -0.000000 -0.034620  0.356043  0.000000 -0.255346
  0H   2px       -0.000000  0.000000  0.000000  0.000000 -0.879624 -0.000000
  0H   2py       -0.000000  0.000000 -0.356043 -0.034620  0.000000 -1.114284
  0H   1dz2       0.525346 -0.001567 -0.000000  0.000000  0.220349  0.000000
  0H   1dxz       0.000000 -0.000000  0.030702 -0.315744  0.000000 -0.188094
  0H   1dyz       0.001809  0.606617  0.000000 -0.000000  0.000000  0.000000
  0H   1dx2y2     0.303308 -0.000905 -0.000000  0.000000 -0.381655  0.000000
  0H   1dxy      -0.000000  0.000000  0.315744  0.030702  0.000000 -0.820809
  1H   1s         0.000000 -0.000000  0.000000  0.000000  0.091720 -0.000000
  1H   2s         0.000000  0.000000 -0.000000 -0.000000  0.265334  0.000000
  1H   3s        -0.000000 -0.000000  0.000000  0.000000 -0.154684 -0.000000
  1H   1pz        0.000000 -0.000000  0.057226 -0.588523  0.000000 -0.109438
  1H   1px       -0.000000  0.000000 -0.000000  0.000000 -0.819708 -0.000000
  1H   1py        0.000000 -0.000000  0.588523  0.057226 -0.000000 -0.477567
  1H   2pz       -0.000000  0.000000 -0.034620  0.356043 -0.000000  0.255346
  1H   2px       -0.000000 -0.000000 -0.000000 -0.000000  0.879624  0.000000
  1H   2py        0.000000 -0.000000 -0.356043 -0.034620 -0.000000  1.114284
  1H   1dz2       0.525346 -0.001567 -0.000000  0.000000  0.220349 -0.000000
  1H   1dxz      -0.000000 -0.000000 -0.030702  0.315744  0.000000 -0.188094
  1H   1dyz       0.001809  0.606617  0.000000 -0.000000 -0.000000 -0.000000
  1H   1dx2y2     0.303308 -0.000905 -0.000000  0.000000 -0.381655 -0.000000
  1H   1dxy      -0.000000  0.000000 -0.315744 -0.030702  0.000000 -0.820809
                     18        19        20        21        22        23
                   3.89023   4.08853   4.08853   4.11782   4.11782   4.66358
                   0.00000   0.00000   0.00000   0.00000   0.00000   0.00000
                  --------  --------  --------  --------  --------  --------
  0H   1s        -0.000000 -0.000000  0.000000  0.000000 -0.000000 -0.692971
  0H   2s         0.000000  0.000000  0.000000 -0.000000  0.000000 -7.134628
  0H   3s        -0.000000 -0.000000  0.000000 -0.000000 -0.000000 -0.134424
  0H   1pz        0.477567 -0.000000 -0.000000  0.649734 -0.066989 -0.000000
  0H   1px        0.000000  0.000000  0.000000 -0.000000  0.000000  0.195761
  0H   1py       -0.109438 -0.000000 -0.000000 -0.066989 -0.649734  0.000000
  0H   2pz       -1.114284  0.000000  0.000000 -0.245026  0.025263  0.000000
  0H   2px       -0.000000 -0.000000  0.000000 -0.000000  0.000000 -3.731103
  0H   2py        0.255346 -0.000000  0.000000  0.025263  0.245026 -0.000000
  0H   1dz2       0.000000  0.000383  0.764715  0.000000  0.000000  0.478293
  0H   1dxz      -0.820809  0.000000  0.000000 -0.565452  0.058299  0.000000
  0H   1dyz      -0.000000 -0.883017  0.000442 -0.000000  0.000000 -0.000000
  0H   1dx2y2    -0.000000  0.000221  0.441508  0.000000  0.000000 -0.828427
  0H   1dxy       0.188094  0.000000  0.000000  0.058299  0.565452  0.000000
  1H   1s         0.000000 -0.000000 -0.000000  0.000000 -0.000000  0.692971
  1H   2s        -0.000000  0.000000 -0.000000  0.000000 -0.000000  7.134628
  1H   3s         0.000000 -0.000000  0.000000 -0.000000  0.000000  0.134424
  1H   1pz       -0.477567 -0.000000  0.000000  0.649734 -0.066989  0.000000
  1H   1px       -0.000000 -0.000000  0.000000  0.000000 -0.000000  0.195761
  1H   1py        0.109438 -0.000000  0.000000 -0.066989 -0.649734 -0.000000
  1H   2pz        1.114284 -0.000000 -0.000000 -0.245026  0.025263 -0.000000
  1H   2px        0.000000  0.000000  0.000000 -0.000000  0.000000 -3.731103
  1H   2py       -0.255346  0.000000 -0.000000  0.025263  0.245026  0.000000
  1H   1dz2      -0.000000 -0.000383 -0.764715 -0.000000 -0.000000 -0.478293
  1H   1dxz      -0.820809 -0.000000  0.000000  0.565452 -0.058299  0.000000
  1H   1dyz       0.000000  0.883017 -0.000442  0.000000 -0.000000  0.000000
  1H   1dx2y2     0.000000 -0.000221 -0.441508 -0.000000 -0.000000  0.828427
  1H   1dxy       0.188094 -0.000000  0.000000 -0.058299 -0.565452  0.000000
                     24        25        26        27
                   5.74478   5.74478   5.82765   6.99548
                   0.00000   0.00000   0.00000   0.00000
                  --------  --------  --------  --------
  0H   1s         0.000000 -0.000000 -1.220451 -1.577649
  0H   2s        -0.000000  0.000000  0.579488 -4.418182
  0H   3s         0.000000 -0.000000 -0.094040  0.595526
  0H   1pz        0.672279 -0.853395  0.000000  0.000000
  0H   1px        0.000000 -0.000000 -0.013480 -1.979938
  0H   1py        0.853395  0.672279 -0.000000 -0.000000
  0H   2pz        0.292913 -0.371826  0.000000  0.000000
  0H   2px       -0.000000  0.000000  0.711367 -1.700671
  0H   2py        0.371826  0.292913 -0.000000 -0.000000
  0H   1dz2       0.000000 -0.000000 -0.559643  0.510311
  0H   1dxz       0.840951 -1.067509  0.000000  0.000000
  0H   1dyz      -0.000000 -0.000000  0.000000  0.000000
  0H   1dx2y2    -0.000000  0.000000  0.969330 -0.883884
  0H   1dxy       1.067509  0.840951 -0.000000 -0.000000
  1H   1s         0.000000 -0.000000 -1.220451  1.577649
  1H   2s        -0.000000 -0.000000  0.579488  4.418182
  1H   3s        -0.000000 -0.000000 -0.094040 -0.595526
  1H   1pz       -0.672279  0.853395 -0.000000 -0.000000
  1H   1px       -0.000000 -0.000000  0.013480 -1.979938
  1H   1py       -0.853395 -0.672279  0.000000  0.000000
  1H   2pz       -0.292913  0.371826 -0.000000 -0.000000
  1H   2px        0.000000 -0.000000 -0.711367 -1.700671
  1H   2py       -0.371826 -0.292913  0.000000  0.000000
  1H   1dz2       0.000000 -0.000000 -0.559643 -0.510311
  1H   1dxz       0.840951 -1.067509  0.000000  0.000000
  1H   1dyz      -0.000000  0.000000 -0.000000 -0.000000
  1H   1dx2y2    -0.000000  0.000000  0.969330  0.883884
  1H   1dxy       1.067509  0.840951 -0.000000 -0.000000

MULLIKEN ATOMIC CHARGES
-----------------------
   0 H :    0.000000
   1 H :   -0.000000
Sum of atomic charges:   -0.0000000

LOEWDIN ATOMIC CHARGES
----------------------
   0 H :   -0.000000
   1 H :   -0.000000

  Mayer bond orders larger than 0.100000
B(  0-H ,  1-H ) :   0.9745

MP2 TOTAL ENERGY:       -1.164653957 Eh
FINAL SINGLE POINT ENERGY        -1.164653957239

DIPOLE MOMENT
-------------
                                X             Y             Z
Electronic contribution:     -0.00000      -0.00000      -0.00000
Nuclear contribution   :      0.00000       0.00000       0.00000
                        -----------------------------------------
Total Dipole Moment    :     -0.00000      -0.00000      -0.00000
                        -----------------------------------------
Magnitude (a.u.)       :      0.00000
Magnitude (Debye)      :      0.00000

Rotational constants in cm-1:     0.000000    61.577480    61.577480
Rotational constants in MHz :     0.000000 1846046.419085 1846046.419085

                             ****ORCA TERMINATED NORMALLY****
TOTAL RUN TIME: 0 days 0 hours 0 minutes 15 seconds 408 msec
