                         Program Version 5.0.4 -  RELEASE  -
|  1> # avogadro generated ORCA input file
|  2> # Basic Mode
|  3> # Molecular orbital of H2
|  4> ! BP OPT STO-3G
|  5> ! Normalprint
|  6> %output
|  7> Print[P_Basis]2
|  8> Print[P_MOs]1
|  9> end
| 10>
| 11> * xyz 0 1
| 12>    C        1.02729        0.05659       -0.08163
| 13>    C        2.35625        0.05659       -0.08163
| 14>    H        0.48239        0.59123       -0.85286
| 15>    H        0.48239       -0.47805        0.68960
| 16>    H        2.90114        0.59123       -0.85286
| 17>    H        2.90114       -0.47805        0.68960
| 18> *
| 19>
| 20>
| 21>                          ****END OF INPUT****
 Total Charge           Charge          ....    0
 Multiplicity           Mult            ....    1
 Number of Electrons    NEL             ....   16
FINAL SINGLE POINT ENERGY       -77.621209830182
FINAL SINGLE POINT ENERGY       -77.622943354115
FINAL SINGLE POINT ENERGY       -77.623146121257
FINAL SINGLE POINT ENERGY       -77.623233795836
                    ***********************HURRAY********************

CARTESIAN COORDINATES (ANGSTROEM)
---------------------------------
  C      1.020978    0.056590   -0.081630
  C      2.362555    0.056590   -0.081630
  H      0.436293    0.589780   -0.850768
  H      0.436293   -0.476600    0.687508
  H      2.947240    0.589780   -0.850768
  H      2.947240   -0.476600    0.687508

 Multiplicity           Mult            ....    1
 Number of Electrons    NEL             ....   16
 Basis Dimension        Dim             ....   14

ORBITAL ENERGIES
----------------

  NO   OCC          E(Eh)            E(eV)
   0   2.0000      -9.717323      -264.4218
   1   2.0000      -9.716738      -264.4059
   2   2.0000      -0.642073       -17.4717
   3   2.0000      -0.482531       -13.1303
   4   2.0000      -0.377676       -10.2771
   5   2.0000      -0.326349        -8.8804
   6   2.0000      -0.271207        -7.3799
   7   2.0000      -0.178040        -4.8447
   8   0.0000       0.075377         2.0511
   9   0.0000       0.323909         8.8140
  10   0.0000       0.373675        10.1682
  11   0.0000       0.376048        10.2328
  12   0.0000       0.564728        15.3670

------------------
MOLECULAR ORBITALS
------------------
                      0         1         2         3         4         5
                  -9.71732  -9.71674  -0.64207  -0.48253  -0.37768  -0.32635
                   2.00000   2.00000   2.00000   2.00000   2.00000   2.00000
                  --------  --------  --------  --------  --------  --------
  0C   1s        -0.701175 -0.699548  0.180309  0.140404  0.000000  0.016933
  0C   2s        -0.039387 -0.024083 -0.477383 -0.431247 -0.000000 -0.026078
  0C   1pz        0.000000 -0.000000 -0.000000 -0.000000  0.334090  0.000000
  0C   1px       -0.006273  0.003407 -0.104870  0.201463  0.000000 -0.502100
  0C   1py       -0.000000 -0.000000  0.000000  0.000000 -0.231601 -0.000000
  1C   1s         0.698595 -0.702125  0.180309 -0.140405 -0.000000  0.016932
  1C   2s         0.039298 -0.024228 -0.477381  0.431249  0.000000 -0.026076
  1C   1pz        0.000000 -0.000000 -0.000000 -0.000000  0.334089 -0.000000
  1C   1px       -0.006286 -0.003384  0.104871  0.201461  0.000000  0.502101
  1C   1py        0.000000 -0.000000  0.000000  0.000000 -0.231600  0.000000
  2H   1s         0.006735  0.006429 -0.114225 -0.215041 -0.251444  0.214240
  3H   1s         0.006735  0.006429 -0.114225 -0.215041  0.251444  0.214240
  4H   1s        -0.006711  0.006454 -0.114224  0.215040 -0.251442  0.214240
  5H   1s        -0.006711  0.006454 -0.114224  0.215040  0.251442  0.214240
                      6         7         8         9        10        11
                  -0.27121  -0.17804   0.07538   0.32391   0.37367   0.37605
                   2.00000   2.00000   0.00000   0.00000   0.00000   0.00000
                  --------  --------  --------  --------  --------  --------
  0C   1s         0.000000  0.000000  0.000000 -0.000000 -0.170717 -0.124939
  0C   2s        -0.000000 -0.000000 -0.000000  0.000000  1.032981  0.799196
  0C   1pz        0.316595 -0.362270  0.461077 -0.565032  0.000000  0.000000
  0C   1px        0.000000 -0.000000  0.000000 -0.000000 -0.194350 -0.510695
  0C   1py       -0.219473 -0.522583  0.665114  0.391697 -0.000000 -0.000000
  1C   1s        -0.000000 -0.000000 -0.000000  0.000000  0.170645 -0.125039
  1C   2s         0.000000  0.000000  0.000000 -0.000000 -1.032516  0.799800
  1C   1pz       -0.316597 -0.362271 -0.461076 -0.565027  0.000000  0.000000
  1C   1px       -0.000000  0.000000 -0.000000  0.000000 -0.194052  0.510806
  1C   1py        0.219474 -0.522584 -0.665113  0.391694 -0.000000 -0.000000
  2H   1s        -0.352879 -0.000000  0.000000 -0.617173 -0.632706 -0.619238
  3H   1s         0.352879  0.000000 -0.000000  0.617173 -0.632706 -0.619238
  4H   1s         0.352880 -0.000000 -0.000000 -0.617170  0.632345 -0.619607
  5H   1s        -0.352880  0.000000  0.000000  0.617170  0.632345 -0.619607
                     12        13
                   0.56473   0.62155
                   0.00000   0.00000
                  --------  --------
  0C   1s         0.000000 -0.112766
  0C   2s        -0.000000  0.836704
  0C   1pz       -0.770011 -0.000000
  0C   1px       -0.000000  1.145950
  0C   1py        0.533795  0.000000
  1C   1s        -0.000000  0.112766
  1C   2s         0.000000 -0.836702
  1C   1pz        0.770014  0.000000
  1C   1px       -0.000000  1.145951
  1C   1py       -0.533797 -0.000000
  2H   1s        -0.594955  0.130122
  3H   1s         0.594956  0.130122
  4H   1s         0.594960 -0.130123
  5H   1s        -0.594960 -0.130123

MULLIKEN ATOMIC CHARGES
-----------------------
   0 C :   -0.161187
   1 C :   -0.161192
   2 H :    0.080595
   3 H :    0.080595
   4 H :    0.080595
   5 H :    0.080595
Sum of atomic charges:   -0.0000000

LOEWDIN ATOMIC CHARGES
----------------------
   0 C :   -0.091194
   1 C :   -0.091199
   2 H :    0.045598
   3 H :    0.045598
   4 H :    0.045598
   5 H :    0.045598

  Mayer bond orders larger than 0.100000
B(  0-C ,  1-C ) :   2.0215 B(  0-C ,  2-H ) :   0.9664 B(  0-C ,  3-H ) :   0.9664
B(  1-C ,  4-H ) :   0.9664 B(  1-C ,  5-H ) :   0.9664

FINAL SINGLE POINT ENERGY       -77.623234350754

DIPOLE MOMENT
-------------
                                X             Y             Z
Electronic contribution:     -0.00000      -0.00000      -0.00000
Nuclear contribution   :     -0.00000       0.00000       0.00000
                        -----------------------------------------
Total Dipole Moment    :     -0.00000       0.00000       0.00000
                        -----------------------------------------
Magnitude (a.u.)       :      0.00000
Magnitude (Debye)      :      0.00001

Rotational constants in cm-1:     4.773529     0.982142     0.814550
Rotational constants in MHz : 143106.798331 29443.862689 24419.593034

                             ****ORCA TERMINATED NORMALLY****
TOTAL RUN TIME: 0 days 0 hours 0 minutes 12 seconds 895 msec
