                         Program Version 5.0.4 -  RELEASE  -
|  1> # avogadro generated ORCA input file
|  2> # Basic Mode
|  3> # Molecular orbital of H2
|  4> ! RHF OPT def2-TZVP
|  5> ! Normalprint
|  6> %output
|  7> Print[P_Basis]2
|  8> Print[P_MOs]1
|  9> end
| 10>
| 11> * xyz 0 1
| 12>    H        1.08068       -0.04512       -0.06080
| 13>    H        1.78868       -0.04512       -0.06080
| 14> *
| 15>
| 16>
| 17>                          ****END OF INPUT****
 Total Charge           Charge          ....    0
 Multiplicity           Mult            ....    1
 Number of Electrons    NEL             ....    2
FINAL SINGLE POINT ENERGY        -1.131996950242
FINAL SINGLE POINT ENERGY        -1.132399044659
FINAL SINGLE POINT ENERGY        -1.132557668117
FINAL SINGLE POINT ENERGY        -1.132558840318
                    ***********************HURRAY********************

CARTESIAN COORDINATES (ANGSTROEM)
---------------------------------
  H      1.067110   -0.045120   -0.060800
  H      1.802250   -0.045120   -0.060800

 Multiplicity           Mult            ....    1
 Number of Electrons    NEL             ....    2
 Basis Dimension        Dim             ....   12

ORBITAL ENERGIES
----------------

  NO   OCC          E(Eh)            E(eV)
   0   2.0000      -0.596228       -16.2242
   1   0.0000       0.167643         4.5618
   2   0.0000       0.307833         8.3766
   3   0.0000       0.649679        17.6787
   4   0.0000       1.420874        38.6639
   5   0.0000       1.420874        38.6639

------------------
MOLECULAR ORBITALS
------------------
                      0         1         2         3         4         5
                  -0.59623   0.16764   0.30783   0.64968   1.42087   1.42087
                   2.00000   0.00000   0.00000   0.00000   0.00000   0.00000
                  --------  --------  --------  --------  --------  --------
  0H   1s        -0.185415  0.070834  0.048856  0.098491  0.000000  0.000000
  0H   2s        -0.288715 -0.171085  0.710667  1.989853 -0.000000  0.000000
  0H   3s        -0.132844  2.360491 -0.846230 -2.276929  0.000000 -0.000000
  0H   1pz       -0.000000  0.000000 -0.000000  0.000000 -0.504020  0.296542
  0H   1px       -0.022017 -0.064575  0.002344  0.142277  0.000000  0.000000
  0H   1py       -0.000000  0.000000  0.000000  0.000000 -0.296542 -0.504020
  1H   1s        -0.185415 -0.070834  0.048856 -0.098491  0.000000  0.000000
  1H   2s        -0.288715  0.171085  0.710667 -1.989853 -0.000000  0.000000
  1H   3s        -0.132844 -2.360491 -0.846230  2.276929  0.000000 -0.000000
  1H   1pz        0.000000 -0.000000 -0.000000 -0.000000 -0.504020  0.296542
  1H   1px        0.022017 -0.064575 -0.002344  0.142277 -0.000000 -0.000000
  1H   1py       -0.000000 -0.000000  0.000000 -0.000000 -0.296542 -0.504020
                      6         7         8         9        10        11
                   1.89107   2.22482   2.22482   2.26286   2.75524   3.82720
                   0.00000   0.00000   0.00000   0.00000   0.00000   0.00000
                  --------  --------  --------  --------  --------  --------
  0H   1s         0.391044  0.000000 -0.000000 -0.607779 -1.067151  1.109639
  0H   2s        -0.770359 -0.000000  0.000000  3.215697  0.943050  1.561693
  0H   3s         0.368297  0.000000 -0.000000 -1.560527 -0.327853 -0.271392
  0H   1pz       -0.000000 -0.148117  0.952684 -0.000000 -0.000000 -0.000000
  0H   1px        0.558904 -0.000000  0.000000  1.268201  0.437799  1.828659
  0H   1py        0.000000 -0.952684 -0.148117 -0.000000 -0.000000  0.000000
  1H   1s         0.391044  0.000000  0.000000  0.607779 -1.067151 -1.109639
  1H   2s        -0.770359 -0.000000 -0.000000 -3.215697  0.943050 -1.561693
  1H   3s         0.368297 -0.000000  0.000000  1.560527 -0.327853  0.271392
  1H   1pz        0.000000  0.148117 -0.952684  0.000000  0.000000  0.000000
  1H   1px       -0.558904 -0.000000  0.000000  1.268201 -0.437799  1.828659
  1H   1py       -0.000000  0.952684  0.148117  0.000000  0.000000 -0.000000

MULLIKEN ATOMIC CHARGES
-----------------------
   0 H :   -0.000000
   1 H :    0.000000
Sum of atomic charges:   -0.0000000

LOEWDIN ATOMIC CHARGES
----------------------
   0 H :   -0.000000
   1 H :   -0.000000

  Mayer bond orders larger than 0.100000
B(  0-H ,  1-H ) :   1.0000

FINAL SINGLE POINT ENERGY        -1.132558843016

DIPOLE MOMENT
-------------
                                X             Y             Z
Electronic contribution:     -0.00000      -0.00000      -0.00000
Nuclear contribution   :      0.00000       0.00000       0.00000
                        -----------------------------------------
Total Dipole Moment    :     -0.00000      -0.00000      -0.00000
                        -----------------------------------------
Magnitude (a.u.)       :      0.00000
Magnitude (Debye)      :      0.00000

Rotational constants in cm-1:     0.000000    61.890687    61.890687
Rotational constants in MHz :     0.000000 1855436.106944 1855436.106944

                             ****ORCA TERMINATED NORMALLY****
TOTAL RUN TIME: 0 days 0 hours 0 minutes 2 seconds 13 msec
