                         Program Version 5.0.4 -  RELEASE  -
|  1> # avogadro generated ORCA input file
|  2> # Basic Mode
|  3> #
|  4> ! MP2 OPT def2-SVP
|  5>
|  6> * xyz 0 1
|  7>    O        0.89689        0.00254       -0.03773
|  8>    H        0.60753        0.65845        0.64539
|  9>    H        1.88622        0.03222       -0.00682
| 10> *
| 11>
| 12>
| 13>                          ****END OF INPUT****
 Total Charge           Charge          ....    0
 Multiplicity           Mult            ....    1
 Number of Electrons    NEL             ....   10
MP2 TOTAL ENERGY:      -76.160602654 Eh
FINAL SINGLE POINT ENERGY       -76.160602653600
MP2 TOTAL ENERGY:      -76.162227942 Eh
FINAL SINGLE POINT ENERGY       -76.162227941743
MP2 TOTAL ENERGY:      -76.162247713 Eh
FINAL SINGLE POINT ENERGY       -76.162247713344
MP2 TOTAL ENERGY:      -76.162249422 Eh
FINAL SINGLE POINT ENERGY       -76.162249421582
MP2 TOTAL ENERGY:      -76.162249801 Eh
FINAL SINGLE POINT ENERGY       -76.162249801338
                    ***********************HURRAY********************

CARTESIAN COORDINATES (ANGSTROEM)
---------------------------------
  O      0.898175    0.003796   -0.036421
  H      0.633602    0.644739    0.631110
  H      1.858863    0.044674    0.006151

 Multiplicity           Mult            ....    1
 Number of Electrons    NEL             ....   10
 Basis Dimension        Dim             ....   24

ORBITAL ENERGIES
----------------

  NO   OCC          E(Eh)            E(eV)
   0   2.0000     -20.547709      -559.1316
   1   2.0000      -1.317973       -35.8639
   2   2.0000      -0.696902       -18.9637
   3   2.0000      -0.571404       -15.5487
   4   2.0000      -0.498481       -13.5644
   5   0.0000       0.174993         4.7618
   6   0.0000       0.254744         6.9319
   7   0.0000       0.783688        21.3252
   8   0.0000       0.872518        23.7424
   9   0.0000       1.185268        32.2528

MULLIKEN ATOMIC CHARGES
-----------------------
   0 O :   -0.324792
   1 H :    0.162396
   2 H :    0.162396
Sum of atomic charges:    0.0000000

LOEWDIN ATOMIC CHARGES
----------------------
   0 O :   -0.149546
   1 H :    0.074773
   2 H :    0.074773

  Mayer bond orders larger than 0.100000
B(  0-O ,  1-H ) :   0.9616 B(  0-O ,  2-H ) :   0.9616

MP2 TOTAL ENERGY:      -76.162249802 Eh
FINAL SINGLE POINT ENERGY       -76.162249802353

DIPOLE MOMENT
-------------
                                X             Y             Z
Electronic contribution:     -0.10776      -0.10554      -0.10992
Nuclear contribution   :      0.57942       0.56752       0.59106
                        -----------------------------------------
Total Dipole Moment    :      0.47166       0.46198       0.48114
                        -----------------------------------------
Magnitude (a.u.)       :      0.81693
Magnitude (Debye)      :      2.07648

Rotational constants in cm-1:    25.907881    14.852993     9.440661
Rotational constants in MHz : 776698.736369 445281.539353 283023.888204

                             ****ORCA TERMINATED NORMALLY****
TOTAL RUN TIME: 0 days 0 hours 0 minutes 9 seconds 248 msec
