                         Program Version 5.0.4 -  RELEASE  -
|  1> # avogadro generated ORCA input file
|  2> # Basic Mode
|  3> # Molecular orbital of H2
|  4> ! BP OPT STO-3G
|  5> ! Normalprint
|  6> %output
|  7> Print[P_Basis]2
|  8> Print[P_MOs]1
|  9> end
| 10>
| 11> * xyz 0 1
| 12>    O        0.89689        0.00254       -0.03773
| 13>    H        0.60753        0.65845        0.64539
| 14>    H        1.88622        0.03222       -0.00682
| 15> *
| 16>
| 17>
| 18>                          ****END OF INPUT****
 Total Charge           Charge          ....    0
 Multiplicity           Mult            ....    1
 Number of Electrons    NEL             ....   10
FINAL SINGLE POINT ENERGY       -75.320562202268
FINAL SINGLE POINT ENERGY       -75.326358713158
FINAL SINGLE POINT ENERGY       -75.326639400296
FINAL SINGLE POINT ENERGY       -75.326639842638
                    ***********************HURRAY********************

CARTESIAN COORDINATES (ANGSTROEM)
---------------------------------
  O      0.862861   -0.030790   -0.072443
  H      0.632811    0.671067    0.658530
  H      1.894968    0.052933    0.014752

 Multiplicity           Mult            ....    1
 Number of Electrons    NEL             ....   10
 Basis Dimension        Dim             ....    7

ORBITAL ENERGIES
----------------

  NO   OCC          E(Eh)            E(eV)
   0   2.0000     -18.489770      -503.1322
   1   2.0000      -0.820336       -22.3225
   2   2.0000      -0.349082        -9.4990
   3   2.0000      -0.199486        -5.4283
   4   2.0000      -0.073307        -1.9948
   5   0.0000       0.247344         6.7306
   6   0.0000       0.321804         8.7567
------------------
MOLECULAR ORBITALS
------------------
                      0         1         2         3         4         5
                 -18.48977  -0.82034  -0.34908  -0.19949  -0.07331   0.24734
                   2.00000   2.00000   2.00000   2.00000   2.00000   0.00000
                  --------  --------  --------  --------  --------  --------
  0O   1s        -0.993507 -0.228582 -0.000001  0.128774 -0.000000  0.112370
  0O   2s        -0.028606  0.818547  0.000003 -0.623040  0.000001 -0.709225
  0O   1pz       -0.002484  0.111601 -0.259158  0.413253  0.692594 -0.466579
  0O   1px       -0.002435  0.109401  0.508090  0.405113  0.000000 -0.457417
  0O   1py       -0.002385  0.107156 -0.248835  0.396792 -0.721327 -0.447995
  1H   1s         0.006312  0.169598 -0.451018  0.318557  0.000000  0.727324
  2H   1s         0.006312  0.169596  0.451019  0.318558 -0.000001  0.727361
                      6
                   0.32180
                   0.00000
                  --------
  0O   1s         0.000003
  0O   2s        -0.000022
  0O   1pz       -0.384305
  0O   1px        0.753407
  0O   1py       -0.368996
  1H   1s         0.782277
  2H   1s        -0.782237

MULLIKEN ATOMIC CHARGES
-----------------------
   0 O :   -0.285059
   1 H :    0.142530
   2 H :    0.142529
Sum of atomic charges:   -0.0000000

LOEWDIN ATOMIC CHARGES
----------------------
   0 O :   -0.201487
   1 H :    0.100744
   2 H :    0.100743

  Mayer bond orders larger than 0.100000
B(  0-O ,  1-H ) :   0.9755 B(  0-O ,  2-H ) :   0.9755

FINAL SINGLE POINT ENERGY       -75.326639844050

DIPOLE MOMENT
-------------
                                X             Y             Z
Electronic contribution:     -0.31776      -0.31123      -0.32414
Nuclear contribution   :      0.66760       0.65389       0.68101
                        -----------------------------------------
Total Dipole Moment    :      0.34984       0.34266       0.35687
                        -----------------------------------------
Magnitude (a.u.)       :      0.60594
Magnitude (Debye)      :      1.54017

Rotational constants in cm-1:    19.515882    13.997306     8.151113
Rotational constants in MHz : 585071.427526 419628.679156 244364.212477

                             ****ORCA TERMINATED NORMALLY****
TOTAL RUN TIME: 0 days 0 hours 0 minutes 2 seconds 982 msec
