                         Program Version 5.0.4 -  RELEASE  -
|  1> # avogadro generated ORCA input file
|  2> # Basic Mode
|  3> # Molecular orbital of H2
|  4> ! BP OPT def2-SVP
|  5> ! Normalprint
|  6> %output
|  7> Print[P_Basis]2
|  8> Print[P_MOs]1
|  9> end
| 10>
| 11> * xyz 0 1
| 12>    H        1.24030        0.02932        0.01573
| 13>    H        1.94830        0.02932        0.01573
| 14> *
| 15>
| 16>
| 17>                          ****END OF INPUT****
 Total Charge           Charge          ....    0
 Multiplicity           Mult            ....    1
 Number of Electrons    NEL             ....    2
FINAL SINGLE POINT ENERGY        -1.169712265749
FINAL SINGLE POINT ENERGY        -1.171721579358
FINAL SINGLE POINT ENERGY        -1.172152397315
FINAL SINGLE POINT ENERGY        -1.172167102898
FINAL SINGLE POINT ENERGY        -1.172167220396
                    ***********************HURRAY********************

CARTESIAN COORDINATES (ANGSTROEM)
---------------------------------
  H      1.210869    0.029320    0.015730
  H      1.977731    0.029320    0.015730

 Multiplicity           Mult            ....    1
 Number of Electrons    NEL             ....    2
 Basis Dimension        Dim             ....   10

ORBITAL ENERGIES
----------------

  NO   OCC          E(Eh)            E(eV)
   0   2.0000      -0.376259       -10.2385
   1   0.0000       0.050061         1.3622
   2   0.0000       0.317297         8.6341
   3   0.0000       0.668310        18.1856
   4   0.0000       1.104681        30.0599
   5   0.0000       1.104681        30.0599

------------------
MOLECULAR ORBITALS
------------------
                      0         1         2         3         4         5
                  -0.37626   0.05006   0.31730   0.66831   1.10468   1.10468
                   2.00000   0.00000   0.00000   0.00000   0.00000   0.00000
                  --------  --------  --------  --------  --------  --------
  0H   1s         0.408289 -0.253655 -0.700824 -0.923648  0.000000  0.000000
  0H   2s         0.174230 -1.685768  0.725266  1.773152 -0.000000  0.000000
  0H   1pz       -0.000000 -0.000000  0.000000 -0.000000 -0.489502  0.331094
  0H   1px        0.016238  0.026060 -0.025443  0.265809  0.000000  0.000000
  0H   1py       -0.000000  0.000000 -0.000000 -0.000000  0.331094  0.489502
  1H   1s         0.408289  0.253655 -0.700824  0.923648 -0.000000 -0.000000
  1H   2s         0.174230  1.685768  0.725266 -1.773152 -0.000000 -0.000000
  1H   1pz       -0.000000  0.000000 -0.000000  0.000000 -0.489502  0.331094
  1H   1px       -0.016238  0.026060  0.025443  0.265809  0.000000  0.000000
  1H   1py       -0.000000  0.000000  0.000000  0.000000  0.331094  0.489502
                      6         7         8         9
                   1.71784   1.85936   1.85936   3.23908
                   0.00000   0.00000   0.00000   0.00000
                  --------  --------  --------  --------
  0H   1s        -0.419064 -0.000000 -0.000000  2.242356
  0H   2s         0.220048 -0.000000 -0.000000  0.008758
  0H   1pz       -0.000000 -0.546459  0.762364 -0.000000
  0H   1px        0.687607 -0.000000 -0.000000  1.898543
  0H   1py       -0.000000 -0.762364 -0.546459 -0.000000
  1H   1s        -0.419064  0.000000  0.000000 -2.242356
  1H   2s         0.220048  0.000000 -0.000000 -0.008758
  1H   1pz        0.000000  0.546459 -0.762364  0.000000
  1H   1px       -0.687607 -0.000000 -0.000000  1.898543
  1H   1py        0.000000  0.762364  0.546459  0.000000

MULLIKEN ATOMIC CHARGES
-----------------------
   0 H :   -0.000000
   1 H :    0.000000
Sum of atomic charges:   -0.0000000

LOEWDIN ATOMIC CHARGES
----------------------
   0 H :   -0.000000
   1 H :    0.000000

  Mayer bond orders larger than 0.100000
B(  0-H ,  1-H ) :   1.0000

FINAL SINGLE POINT ENERGY        -1.172167220432

DIPOLE MOMENT
-------------
                                X             Y             Z
Electronic contribution:     -0.00000       0.00000       0.00000
Nuclear contribution   :      0.00000       0.00000       0.00000
                        -----------------------------------------
Total Dipole Moment    :     -0.00000       0.00000       0.00000
                        -----------------------------------------
Magnitude (a.u.)       :      0.00000
Magnitude (Debye)      :      0.00000

Rotational constants in cm-1:     0.000000    56.876332    56.876332
Rotational constants in MHz :     0.000000 1705109.537650 1705109.537650

                             ****ORCA TERMINATED NORMALLY****
TOTAL RUN TIME: 0 days 0 hours 0 minutes 2 seconds 899 msec
