                         Program Version 5.0.4 -  RELEASE  -
|  1> # avogadro generated ORCA input file
|  2> # Basic Mode
|  3> #
|  4> ! BP OPT def2-SVP
|  5>
|  6> * xyz 0 1
|  7>    O        0.89689        0.00254       -0.03773
|  8>    H        0.60753        0.65845        0.64539
|  9>    H        1.88622        0.03222       -0.00682
| 10> *
| 11>
| 12>
| 13>                          ****END OF INPUT****
 Total Charge           Charge          ....    0
 Multiplicity           Mult            ....    1
 Number of Electrons    NEL             ....   10
FINAL SINGLE POINT ENERGY       -76.360182863985
FINAL SINGLE POINT ENERGY       -76.360750629672
FINAL SINGLE POINT ENERGY       -76.360765196752
FINAL SINGLE POINT ENERGY       -76.360769981613
                    ***********************HURRAY********************

CARTESIAN COORDINATES (ANGSTROEM)
---------------------------------
  O      0.894363    0.000061   -0.040312
  H      0.628636    0.649973    0.636561
  H      1.867641    0.043176    0.004591

 Multiplicity           Mult            ....    1
 Number of Electrons    NEL             ....   10
 Basis Dimension        Dim             ....   24

ORBITAL ENERGIES
----------------

  NO   OCC          E(Eh)            E(eV)
   0   2.0000     -18.761610      -510.5294
   1   2.0000      -0.890672       -24.2364
   2   2.0000      -0.455066       -12.3830
   3   2.0000      -0.313341        -8.5264
   4   2.0000      -0.232870        -6.3367
   5   0.0000       0.029413         0.8004
   6   0.0000       0.105699         2.8762
   7   0.0000       0.507353        13.8058
   8   0.0000       0.571158        15.5420
   9   0.0000       0.862196        23.4615

MULLIKEN ATOMIC CHARGES
-----------------------
   0 O :   -0.298601
   1 H :    0.149301
   2 H :    0.149299
Sum of atomic charges:    0.0000000

LOEWDIN ATOMIC CHARGES
----------------------
   0 O :   -0.155082
   1 H :    0.077542
   2 H :    0.077540

  Mayer bond orders larger than 0.100000
B(  0-O ,  1-H ) :   1.0079 B(  0-O ,  2-H ) :   1.0079

FINAL SINGLE POINT ENERGY       -76.360769981911

DIPOLE MOMENT
-------------
                                X             Y             Z
Electronic contribution:     -0.13802      -0.13518      -0.14079
Nuclear contribution   :      0.58894       0.57685       0.60078
                        -----------------------------------------
Total Dipole Moment    :      0.45092       0.44166       0.45999
                        -----------------------------------------
Magnitude (a.u.)       :      0.78102
Magnitude (Debye)      :      1.98518

Rotational constants in cm-1:    25.076896    14.525302     9.197709
Rotational constants in MHz : 751786.441656 435457.591613 275740.373602

                             ****ORCA TERMINATED NORMALLY****
TOTAL RUN TIME: 0 days 0 hours 0 minutes 6 seconds 997 msec
